# vtk DataFile Version 3.0
vtk output
ASCII
DATASET POLYDATA
POINTS 360 float
25.8247 14.4977 -19.5433 27.4314 14.178 -20.2813 23.8161 14.8179 -18.8052 
27.028 12.7689 -17.4869 23.0116 14.0293 -19.1214 25.422 13.7139 -18.3306 
28.6343 11.9828 -16.2742 29.0348 10.875 -17.3284 27.0255 10.5646 -16.5375 
25.4186 10.7202 -17.6974 23.4096 10.7225 -17.6974 31.2427 9.21411 -18.1453 
27.0236 8.84754 -11.4234 24.613 9.00921 -11.0544 31.2411 7.79413 -18.4087 
28.2271 7.25168 -16.6424 22.6039 8.85257 -11.4234 26.2189 7.88969 -15.1664 
23.405 6.62665 -16.5896 25.4144 7.09596 -17.0115 30.4365 6.8726 -11.4494 
29.0316 8.05579 -11.7396 30.6333 3.29646 -19.7523 28.2232 3.78118 -17.1163 
26.2151 4.57293 -16.8002 30.4336 4.35048 -11.2381 29.0275 4.43155 -11.0536 
28.6242 3.1502 -17.0635 26.6137 1.73769 -15.798 32.4424 4.16851 -17.7227 
32.6403 1.56671 -17.6959 30.2301 2.03586 -19.6466 30.6314 1.59493 -10.0514 
29.0233 0.807305 -10.3676 32.2383 1.42899 -11.9493 30.6299 0.307936 -17.5902 
27.413 -2.05159 -17.0099 28.0175 -0.404271 -19.2508 32.0363 0.406551 -11.2902 
30.6285 -0.927182 -9.84013 29.4237 -0.45421 -10.262 32.6371 -1.27327 -18.2226 
27.0117 -1.55359 -9.78731 32.0323 -3.05876 -10.2352 29.4197 -3.91952 -9.20699 
33.036 -3.79065 -16.4824 27.4115 -3.28671 -9.25981 27.009 -3.94272 -16.8514 
31.2273 -4.33965 -16.2451 28.2136 -4.57981 -18.3275 30.4241 -4.00013 -9.39149 
29.6166 -7.46453 -8.33651 27.4079 -6.43935 -8.99568 32.0284 -6.52408 -9.18019 
31.6255 -7.46682 -8.3365 31.0208 -9.27825 -7.99352 27.4054 -8.64361 -8.04635 
29.414 -8.95856 -7.25549 29.8117 -12.5833 -6.56952 24.7943 -8.24331 -7.12381 
24.9904 -12.4188 -6.2005 27.401 -12.5805 -6.56952 30.6152 -12.5842 -6.56952 
29.4083 -13.9976 -5.30399 26.5963 -13.5332 -8.78362 27.8244 6.48343 -10.8431 
27.6215 4.67154 -10.5001 26.8136 0.889285 -10.1831 15.7741 9.32157 -14.903 
16.5777 9.33622 -10.3163 20.5955 9.31089 -16.4319 18.185 9.47256 -16.0629 
14.9727 11.2141 -15.0615 15.7732 8.53211 -15.2192 18.1818 6.63778 -15.0607 
20.5936 7.57823 -15.9044 25.0127 7.11716 -10.8959 20.1934 9.01424 -11.0544 
20.5946 8.54218 -10.6325 16.3744 7.20647 -10.7114 17.7795 6.1822 -10.0522 
14.5675 8.22081 -14.4283 23.4045 6.1758 -10.0522 19.788 5.8413 -16.9058 
22.6005 5.83291 -18.4347 25.0107 5.35857 -18.0129 23 3.80788 -11.0008 
20.9914 4.12803 -10.2627 18.5812 4.60237 -10.6846 16.9741 4.6042 -10.6846 
24.6069 3.64712 -11.3698 17.7791 5.84878 -15.3769 15.9692 4.19765 -14.6649 
24.605 1.91447 -10.8423 25.2086 2.75676 -17.9861 24.8018 -1.63054 -9.97182 
24.7981 -4.93692 -8.54781 24.9976 -6.11875 -8.25765 22.1828 -8.16606 -8.4682 
22.9813 -12.5755 -6.56952 18.1848 9.33439 -10.3163 13.9667 9.89025 -10.5537 
15.169 7.20784 -10.7114 18.9647 -11.4636 -5.5153 15.7501 -11.7778 -6.25334 
21.3751 -11.7842 -6.25334 13.7413 -11.6166 -5.88433 12.9378 -11.6157 -5.88433 
10.7264 -12.9537 -5.96319 25.3895 -14.7929 -8.67797 23.7824 -14.791 -8.67797 
24.9897 -13.0338 -1.561 22.9815 -12.401 -1.61383 18.9637 -12.3964 -1.61383 
16.9542 -12.8657 -1.19199 14.9453 -12.8634 -1.192 26.999 -12.7234 -2.35186 
20.9717 -13.1882 -1.93002 18.9615 -14.3088 -7.57093 13.9396 -13.9109 -8.17728 
12.9358 -13.3431 -3.82794 21.7747 -13.6814 -7.62375 10.9267 -13.505 -5.72585 
24.9883 -14.2897 0.0735413 23.381 -14.4416 1.23342 20.9703 -14.4388 1.23341 
17.7547 -15.5321 3.23697 14.5401 -15.8463 2.49893 26.9972 -14.2972 -1.45535 
12.1295 -15.6898 1.33905 15.9464 -15.7685 2.68344 13.3378 -13.1795 -1.93003 
16.9522 -14.6295 -9.83785 28.0005 -15.3261 -2.32506 27.9994 -16.2797 -4.53916 
21.571 -16.1135 -4.17015 22.9745 -18.5577 -3.77434 26.9931 -17.9318 -3.82716 
24.582 -18.2469 -4.5652 26.9945 -16.6603 -0.87503 17.7511 -18.69 1.97221 
25.3865 -17.4428 0.337671 21.7692 -18.5304 3.87012 8.51401 -15.2089 2.4461 
6.70535 -15.7579 2.68343 10.9245 -15.3706 2.07709 5.6999 -16.6205 3.71162 
12.5279 -18.6788 3.50109 10.5197 -18.046 3.44827 8.5115 -17.4132 3.39544 
15.7422 -18.6825 3.5011 13.7333 -18.6802 3.50109 23.7781 -18.5379 2.34123 
24.9829 -19.0212 -0.294712 21.364 -21.5392 -0.0834131 18.9545 -20.424 2.4997 
24.1793 -19.0307 -3.3525 22.9729 -19.9725 -2.50881 16.5443 -19.9445 3.60675 
14.9379 -19.3173 2.02503 23.7766 -19.8041 0.917989 12.5277 -18.8378 3.13208 
12.9683 15.1585 -15.0094 10.5579 15.4791 -14.2714 12.7651 13.1876 -15.0355 
14.1732 14.8392 -15.7475 14.1718 13.5782 -15.6418 10.957 13.1154 -13.6911 
20.6 13.253 -16.3798 17.7879 13.5689 -17.1707 12.7613 9.88125 -13.6115 
15.7773 12.1564 -15.9052 13.1642 10.8344 -11.3974 13.3618 7.90951 -13.6375 
14.9657 5.06771 -14.1642 15.569 5.62846 -11.3438 15.9665 1.83446 -14.0846 
15.3648 2.70407 -13.5839 22.5966 2.3676 -17.3797 17.7899 15.3015 -17.6982 
16.7846 14.5927 -17.8299 20.2 14.822 -18.8052 10.7596 16.1992 -11.0819 
9.55371 15.7238 -12.189 12.3655 15.0952 -10.6073 12.3628 12.7321 -10.0269 
11.1583 13.5177 -11.2396 14.5734 13.4395 -9.89526 18.1877 11.8513 -12.0565 
15.7768 11.7003 -10.8967 19.7841 2.37599 -15.8508 18.5791 2.69522 -15.1128 
23.1975 0.893403 -10.1831 21.1899 1.99782 -10.6578 18.779 1.84163 -11.0268 
17.5733 1.52515 -11.7648 25.406 -0.316644 -17.5374 16.9673 -1.38842 -10.9472 
21.7901 -0.127659 -9.52395 21.5868 -2.25222 -8.3901 19.3794 -0.124915 -9.52395 
23.3973 -0.155427 -17.1684 17.7719 -0.456506 -14.8487 15.9638 -0.528724 -13.5043 
21.7876 -2.33192 -8.57461 18.573 -2.64611 -9.31265 16.1612 -3.59176 -9.99786 
25.0004 -3.62257 -16.1134 18.5726 -2.97954 -14.6374 15.9611 -2.89191 -12.924 
20.1801 -2.64794 -9.31265 15.3562 -4.8519 -9.89221 20.578 -6.11372 -8.25766 
16.5594 -6.73967 -8.20484 14.1487 -6.74211 -9.73373 22.9894 -5.49112 -9.83937 
17.7656 -5.95158 -7.88865 15.7533 -8.94301 -7.2555 13.7453 -8.15645 -8.46821 
20.1742 -7.84591 -7.73017 19.5711 -8.23736 -7.12381 12.9397 -9.88301 -6.41182 
12.5744 22.0999 -14.0616 10.9658 20.8407 -13.956 14.5826 21.4619 -15.5377 
16.9918 20.1877 -18.4898 16.5893 19.5525 -19.9659 13.3729 17.6801 -15.2207 
13.7761 18.9303 -18.3842 18.1967 19.7096 -19.5969 19.4008 18.6009 -20.6511 
20.4048 18.2024 -21.5736 21.4086 17.6398 -24.3941 18.9982 17.9604 -23.6561 
16.9899 18.4395 -22.549 22.6141 17.7974 -24.0251 10.1606 19.4216 -14.2193 
21.0041 15.2771 -23.8138 17.3895 16.5475 -22.3905 22.0103 16.7702 -24.8948 
18.9963 16.2278 -23.1286 9.55586 17.6102 -13.8764 20.1973 12.4432 -22.8116 
18.9936 13.8646 -22.5482 23.0102 12.7527 -23.6025 10.7609 17.3013 -11.5566 
23.4103 11.3323 -23.8658 20.7974 10.1588 -22.0468 20.1831 0.00716122 -16.7994 
27.2355 18.5125 -20.8356 25.4283 19.2246 -20.7039 22.615 18.5972 -20.6511 
27.4359 18.1098 -23.287 24.6234 18.113 -23.287 26.2286 16.3629 -27.3462 
24.0185 16.1426 -23.3131 28.2364 15.433 -21.9158 28.237 15.8838 -28.4533 
26.223 11.4776 -26.5546 24.6161 11.6488 -23.1278 29.2351 10.2978 -24.7355 
24.012 10.4627 -24.3665 27.0255 10.5335 -25.7109 28.6339 11.6286 -27.7145 
31.8459 9.57963 -26.3961 30.0347 6.83155 -23.6805 25.0134 7.70619 -23.1799 
29.4337 8.3265 -24.7616 27.0216 7.07338 -23.127 30.032 4.46837 -23.1002 
29.4289 4.07692 -22.4939 26.6164 4.08012 -22.4939 25.4124 5.34255 -22.5995 
28.6237 2.65785 -22.7572 26.6151 2.97799 -22.0192 21.7862 -3.61891 -16.1134 
20.581 -3.45861 -15.7444 29.0143 -7.10284 -18.1162 26.6036 -7.10009 -18.1162 
31.4536 17.9463 -23.656 32.6581 17.1606 -22.4433 29.4443 17.6307 -24.3941 
30.6475 15.7325 -25.7645 33.0591 16.5348 -20.8616 31.2501 15.668 -21.3623 
32.6563 15.5817 -23.0757 31.0453 12.2564 -27.7673 33.4569 13.0483 -25.9222 
35.2649 12.972 -24.5778 33.2556 12.6771 -19.2003 31.2462 12.2026 -20.3073 
35.4617 9.42177 -25.2362 33.453 9.5778 -26.3961 34.4613 12.9833 -21.52 
33.4532 9.76266 -18.3826 35.2608 9.35809 -20.8341 35.4596 7.53018 -25.0777 
33.851 6.27095 -24.9721 37.0676 8.31781 -24.7616 33.0471 5.98514 -16.5368 
34.6569 8.33612 -20.1749 36.8649 6.67522 -20.9918 36.6624 5.32455 -24.1284 
35.0546 4.69585 -24.0756 33.2459 4.14685 -23.8383 34.4518 4.64301 -16.6156 
36.8615 3.68669 -18.8297 33.4446 2.18076 -22.3354 31.0344 2.6551 -22.7572 
36.6569 0.465192 -15.6923 35.8537 0.77359 -18.0121 35.0521 2.4916 -23.1263 
37.0558 -2.05738 -15.481 35.449 -1.74288 -16.2719 37.0547 -3.00058 -14.6373 
35.0445 -4.10561 -15.6916 24.5953 -6.61583 -15.4803 18.1658 -7.39278 -14.2676 
20.9788 -6.92438 -14.6894 22.1842 -6.93094 -16.2183 15.5566 -5.25464 -12.3436 
16.5585 -7.54469 -13.1077 20.5738 -9.75871 -13.6873 22.1819 -8.97108 -13.3711 
16.557 -8.80575 -13.0021 18.1629 -9.91489 -14.0563 23.3847 -11.1819 -13.9506 
16.9547 -12.4304 -12.3161 18.5629 -11.4891 -13.1598 21.3754 -11.4975 -14.6887 
24.1867 -12.5976 -12.6851 26.1958 -12.441 -12.3161 22.5779 -14.0158 -12.9485 
17.3534 -15.1119 -12.4738 18.5586 -15.2722 -12.8428 20.9702 -14.4907 -14.0555 
24.587 -13.8591 -12.5794 34.6646 15.1026 -24.1828 36.0668 11.5511 -24.8412 
36.6676 9.89199 -25.6581 36.0638 8.88039 -21.9411 36.2572 2.3313 -23.4953 
32.6379 -0.499372 -22.4931 31.4326 -0.497999 -22.4931 29.0221 -0.336325 -22.1241 
31.0238 -6.62315 -15.4803 35.0424 -5.99719 -15.5331 33.0335 -5.99491 -15.5331 
28.6111 -8.36343 -18.0106 25.3968 -8.35977 -18.0106 27.0038 -8.52053 -18.3796 
30.6163 -11.6669 -15.0577 29.6112 -12.222 -16.3492 30.8142 -14.2791 -18.0887 
29.6089 -14.2777 -18.0887 23.0041 7.39581 -22.389 20.1641 -16.6941 -13.1062 
18.5572 -16.5333 -12.7372 19.3611 -16.2164 -11.9991 16.9504 -16.2136 -11.9991 

POLYGONS 1199 4796
3 0 1 5 
3 5 1 3 
3 2 0 4 
3 4 0 5 
3 0 3 1 
3 0 5 3 
3 4 5 10 
3 5 9 10 
3 3 6 8 
3 8 6 7 
3 5 3 8 
3 3 7 6 
3 3 8 7 
3 5 8 9 
3 8 5 12 
3 12 5 13 
3 5 9 13 
3 12 3 8 
3 10 13 9 
3 7 11 14 
3 7 14 15 
3 13 10 16 
3 8 15 17 
3 8 7 15 
3 17 7 8 
3 17 15 7 
3 8 12 17 
3 9 8 17 
3 9 17 13 
3 13 17 12 
3 9 13 19 
3 16 18 13 
3 18 19 13 
3 16 10 18 
3 14 15 21 
3 20 14 21 
3 15 7 21 
3 10 9 19 
3 18 10 19 
3 15 17 24 
3 15 24 23 
3 17 23 24 
3 17 15 23 
3 23 15 14 
3 23 14 22 
3 20 26 25 
3 20 21 26 
3 20 25 14 
3 26 15 23 
3 21 15 26 
3 25 22 14 
3 24 23 27 
3 28 24 27 
3 30 22 29 
3 22 30 31 
3 27 23 31 
3 23 22 31 
3 22 25 32 
3 31 32 30 
3 31 22 32 
3 27 33 26 
3 26 23 27 
3 31 30 29 
3 31 29 22 
3 23 28 27 
3 25 26 33 
3 32 25 33 
3 32 34 30 
3 31 37 27 
3 35 37 31 
3 28 27 36 
3 27 37 36 
3 32 40 39 
3 33 40 32 
3 30 34 38 
3 27 40 33 
3 41 30 38 
3 27 37 40 
3 28 37 27 
3 36 37 28 
3 35 30 41 
3 30 35 31 
3 32 39 38 
3 34 32 38 
3 37 36 42 
3 40 37 42 
3 41 38 39 
3 35 41 39 
3 39 38 43 
3 35 39 43 
3 45 35 43 
3 42 44 40 
3 46 44 42 
3 46 42 36 
3 46 36 47 
3 35 45 48 
3 36 37 47 
3 35 48 49 
3 37 35 49 
3 37 49 47 
3 39 50 43 
3 40 44 50 
3 40 50 39 
3 45 43 50 
3 48 45 50 
3 48 44 49 
3 50 44 48 
3 44 51 49 
3 47 52 46 
3 49 52 47 
3 51 52 49 
3 50 54 44 
3 50 51 54 
3 50 44 51 
3 46 52 44 
3 44 52 51 
3 54 50 43 
3 54 43 53 
3 44 51 54 
3 54 55 57 
3 54 57 51 
3 52 51 56 
3 51 57 56 
3 56 57 58 
3 61 56 58 
3 59 56 61 
3 60 59 61 
3 60 61 56 
3 60 56 59 
3 57 56 61 
3 57 61 58 
3 58 57 55 
3 58 55 62 
3 61 64 58 
3 64 63 58 
3 60 61 64 
3 61 58 63 
3 64 61 63 
3 15 17 65 
3 21 15 65 
3 15 21 17 
3 21 65 17 
3 65 26 66 
3 26 65 21 
3 66 26 33 
3 67 66 33 
3 26 33 32 
3 25 26 32 
3 69 71 68 
3 68 71 74 
3 73 68 74 
3 71 70 75 
3 74 71 75 
3 9 8 19 
3 70 10 18 
3 75 70 18 
3 19 8 17 
3 17 9 65 
3 65 9 76 
3 76 9 13 
3 76 13 19 
3 78 75 77 
3 70 77 75 
3 77 70 78 
3 71 80 70 
3 70 80 78 
3 74 80 71 
3 71 79 74 
3 69 79 71 
3 68 73 79 
3 68 79 69 
3 68 72 81 
3 73 68 81 
3 82 76 19 
3 82 19 18 
3 79 80 74 
3 79 73 81 
3 81 72 73 
3 72 68 73 
3 78 82 75 
3 75 82 18 
3 75 18 84 
3 83 75 84 
3 24 85 17 
3 85 19 17 
3 18 19 85 
3 84 18 85 
3 78 87 82 
3 82 87 86 
3 80 87 78 
3 80 88 87 
3 76 66 65 
3 90 66 76 
3 82 90 76 
3 86 90 82 
3 89 91 88 
3 89 79 91 
3 79 92 91 
3 73 92 79 
3 88 91 74 
3 73 74 91 
3 92 73 91 
3 91 74 83 
3 83 74 75 
3 89 88 80 
3 79 89 80 
3 91 83 88 
3 88 83 87 
3 24 23 28 
3 90 67 66 
3 93 67 90 
3 84 85 90 
3 86 84 90 
3 83 86 87 
3 85 93 90 
3 85 94 93 
3 83 84 86 
3 85 24 28 
3 94 85 28 
3 94 28 95 
3 28 42 95 
3 95 93 94 
3 42 28 36 
3 93 95 67 
3 95 42 67 
3 33 42 40 
3 33 67 42 
3 44 46 40 
3 46 42 40 
3 42 96 46 
3 42 95 96 
3 50 39 44 
3 95 42 46 
3 96 95 46 
3 44 40 39 
3 52 97 46 
3 97 96 46 
3 52 51 46 
3 46 51 44 
3 52 97 56 
3 56 97 59 
3 59 98 99 
3 59 99 60 
3 102 101 69 
3 13 76 65 
3 16 77 78 
3 82 16 78 
3 77 100 80 
3 78 77 80 
3 65 12 13 
3 82 76 13 
3 82 13 16 
3 12 65 21 
3 65 17 12 
3 76 18 13 
3 77 16 75 
3 75 16 18 
3 100 77 78 
3 80 100 78 
3 80 74 100 
3 79 69 74 
3 74 69 100 
3 79 73 69 
3 73 102 69 
3 18 76 82 
3 102 73 79 
3 69 80 100 
3 79 80 69 
3 69 101 79 
3 101 102 79 
3 79 88 89 
3 65 66 21 
3 65 76 90 
3 66 65 90 
3 76 82 86 
3 90 76 86 
3 79 80 88 
3 67 40 33 
3 67 42 40 
3 99 60 109 
3 110 99 109 
3 109 60 64 
3 61 60 111 
3 116 61 111 
3 99 111 60 
3 112 111 99 
3 105 103 113 
3 117 105 113 
3 104 113 103 
3 114 113 104 
3 115 114 106 
3 106 114 104 
3 106 120 107 
3 119 120 106 
3 118 103 105 
3 121 118 105 
3 58 63 62 
3 108 122 107 
3 122 120 107 
3 110 105 99 
3 110 121 105 
3 108 107 120 
3 122 108 120 
3 111 112 124 
3 123 111 124 
3 114 126 113 
3 127 115 114 
3 116 111 123 
3 128 116 123 
3 124 125 117 
3 124 117 112 
3 117 113 126 
3 125 117 126 
3 127 115 129 
3 130 127 114 
3 129 115 131 
3 61 116 128 
3 112 99 124 
3 125 124 112 
3 125 105 117 
3 106 127 115 
3 61 128 63 
3 99 110 124 
3 105 125 110 
3 125 124 110 
3 127 119 130 
3 119 132 130 
3 107 127 106 
3 129 127 107 
3 107 120 129 
3 132 103 118 
3 132 104 103 
3 106 104 132 
3 119 106 132 
3 114 130 126 
3 115 130 114 
3 115 127 130 
3 63 128 133 
3 132 118 130 
3 130 118 126 
3 129 120 127 
3 120 119 127 
3 121 136 135 
3 110 136 121 
3 137 63 134 
3 137 64 63 
3 138 110 109 
3 138 136 110 
3 109 64 137 
3 138 109 137 
3 128 64 63 
3 64 128 139 
3 109 141 123 
3 140 121 142 
3 126 121 140 
3 126 118 121 
3 137 64 139 
3 138 141 109 
3 121 135 142 
3 64 138 109 
3 64 137 138 
3 145 129 147 
3 148 145 147 
3 143 145 148 
3 149 143 148 
3 144 143 149 
3 146 144 149 
3 127 130 151 
3 130 150 151 
3 127 147 129 
3 151 147 127 
3 123 141 139 
3 128 123 139 
3 150 130 126 
3 140 150 126 
3 148 129 145 
3 125 142 152 
3 124 125 152 
3 143 144 146 
3 149 143 146 
3 124 152 123 
3 127 150 130 
3 151 150 127 
3 129 151 127 
3 147 151 129 
3 149 145 143 
3 149 148 145 
3 123 152 141 
3 140 142 154 
3 155 140 154 
3 142 154 135 
3 137 139 138 
3 138 139 141 
3 153 138 141 
3 153 156 138 
3 135 157 154 
3 135 136 157 
3 136 138 156 
3 157 136 156 
3 130 140 126 
3 150 140 130 
3 140 142 125 
3 140 125 126 
3 129 148 147 
3 151 150 159 
3 150 158 159 
3 147 151 159 
3 152 141 160 
3 154 157 160 
3 156 153 157 
3 157 153 160 
3 158 151 159 
3 158 150 151 
3 160 142 154 
3 160 152 142 
3 147 161 151 
3 161 159 151 
3 148 161 147 
3 150 140 155 
3 158 150 155 
3 147 159 161 
3 153 141 160 
3 140 150 158 
3 155 140 158 
3 142 140 155 
3 142 155 154 
3 164 166 165 
3 164 165 162 
3 166 164 162 
3 166 162 165 
3 163 167 162 
3 162 167 164 
3 5 3 9 
3 164 166 72 
3 169 171 68 
3 71 169 68 
3 72 164 170 
3 68 171 72 
3 169 71 168 
3 168 71 70 
3 171 169 71 
3 68 171 71 
3 70 71 169 
3 10 168 70 
3 169 168 70 
3 3 8 9 
3 72 172 101 
3 172 72 170 
3 170 72 173 
3 72 81 173 
3 81 101 102 
3 72 101 81 
3 172 170 173 
3 172 173 101 
3 101 173 81 
3 102 72 81 
3 102 79 81 
3 81 92 174 
3 81 73 92 
3 89 102 175 
3 89 79 102 
3 174 175 102 
3 102 81 174 
3 175 174 92 
3 89 175 92 
3 177 92 176 
3 174 92 177 
3 85 84 86 
3 90 85 86 
3 92 91 88 
3 89 92 88 
3 85 90 94 
3 86 178 90 
3 178 94 90 
3 86 84 178 
3 92 89 176 
3 92 174 176 
3 84 85 94 
3 84 94 178 
3 174 177 176 
3 2 0 5 
3 4 2 5 
3 181 2 4 
3 168 181 4 
3 182 163 183 
3 166 165 180 
3 166 180 171 
3 169 171 180 
3 180 179 169 
3 169 181 168 
3 169 179 181 
3 182 184 163 
3 184 162 163 
3 179 180 171 
3 169 179 171 
3 165 166 171 
3 165 171 180 
3 182 186 185 
3 182 185 184 
3 184 185 162 
3 182 163 167 
3 186 182 167 
3 164 162 185 
3 168 4 70 
3 4 10 70 
3 184 185 187 
3 171 189 169 
3 169 189 188 
3 164 185 187 
3 164 187 166 
3 186 164 185 
3 186 167 164 
3 10 4 168 
3 72 166 171 
3 101 185 172 
3 101 187 185 
3 188 189 69 
3 100 188 69 
3 187 189 101 
3 101 189 69 
3 185 186 172 
3 188 100 169 
3 171 69 189 
3 187 101 166 
3 185 164 172 
3 169 100 168 
3 168 100 77 
3 166 69 171 
3 101 69 166 
3 164 170 172 
3 70 168 77 
3 75 70 10 
3 75 10 18 
3 10 9 18 
3 9 19 18 
3 77 16 70 
3 70 16 10 
3 172 170 101 
3 170 72 101 
3 71 70 74 
3 70 75 74 
3 68 71 73 
3 71 74 73 
3 71 70 77 
3 100 71 77 
3 69 71 100 
3 72 68 69 
3 101 72 69 
3 19 17 24 
3 85 19 24 
3 75 83 18 
3 83 84 18 
3 18 84 19 
3 19 84 85 
3 74 75 91 
3 91 75 83 
3 74 92 73 
3 91 92 74 
3 190 83 84 
3 178 190 84 
3 92 91 176 
3 91 191 176 
3 94 178 85 
3 178 84 85 
3 28 94 24 
3 94 85 24 
3 86 87 193 
3 192 86 193 
3 88 193 87 
3 194 193 88 
3 88 91 194 
3 89 195 194 
3 89 194 92 
3 92 194 91 
3 178 192 94 
3 178 84 192 
3 192 84 86 
3 92 195 89 
3 176 195 92 
3 83 191 91 
3 190 191 83 
3 192 93 94 
3 94 28 196 
3 28 36 196 
3 192 199 193 
3 198 199 192 
3 199 200 193 
3 198 192 178 
3 193 190 192 
3 190 178 192 
3 200 191 193 
3 191 190 193 
3 195 176 197 
3 198 178 201 
3 202 191 200 
3 203 197 176 
3 178 196 201 
3 94 196 178 
3 176 191 203 
3 191 202 203 
3 193 194 200 
3 192 198 93 
3 198 95 93 
3 200 194 197 
3 194 195 197 
3 201 204 198 
3 197 203 206 
3 207 204 196 
3 204 201 196 
3 208 200 205 
3 202 200 208 
3 206 203 209 
3 202 209 203 
3 208 209 202 
3 196 36 207 
3 207 36 47 
3 199 204 198 
3 206 197 200 
3 95 198 96 
3 96 198 204 
3 199 205 200 
3 210 205 199 
3 210 199 198 
3 210 198 204 
3 204 207 96 
3 205 206 208 
3 208 206 209 
3 205 200 197 
3 206 205 197 
3 210 204 199 
3 47 96 207 
3 46 96 47 
3 212 210 204 
3 212 204 215 
3 204 97 215 
3 96 97 204 
3 211 213 214 
3 211 206 213 
3 205 216 210 
3 210 216 212 
3 206 213 205 
3 205 213 216 
3 204 215 96 
3 96 215 97 
3 216 206 205 
3 213 206 216 
3 97 98 215 
3 59 98 97 
3 214 213 218 
3 213 217 218 
3 52 59 97 
3 56 59 52 
3 212 219 215 
3 215 219 98 
3 220 217 216 
3 216 217 213 
3 220 216 219 
3 219 216 212 
3 219 99 105 
3 219 98 99 
3 220 217 104 
3 98 219 105 
3 99 98 105 
3 218 106 217 
3 217 106 104 
3 221 107 218 
3 218 107 106 
3 217 220 103 
3 104 217 103 
3 220 219 103 
3 219 105 103 
3 220 104 103 
3 227 222 224 
3 227 224 228 
3 226 230 229 
3 226 229 225 
3 224 225 228 
3 228 225 226 
3 230 231 233 
3 233 231 232 
3 226 230 234 
3 234 230 233 
3 223 222 227 
3 236 223 227 
3 181 232 231 
3 180 226 234 
3 237 232 181 
3 180 234 238 
3 235 237 239 
3 235 232 237 
3 238 234 233 
3 240 238 233 
3 235 239 232 
3 233 232 240 
3 232 237 240 
3 232 239 237 
3 180 179 230 
3 226 180 230 
3 179 181 230 
3 230 181 231 
3 165 228 226 
3 180 165 226 
3 227 165 228 
3 165 162 227 
3 236 227 162 
3 163 236 162 
3 237 242 239 
3 237 181 242 
3 243 179 240 
3 180 238 240 
3 179 180 240 
3 242 244 239 
3 239 244 237 
3 243 240 237 
3 242 243 237 
3 237 244 242 
3 163 227 236 
3 163 236 183 
3 236 241 183 
3 163 162 227 
3 163 183 241 
3 241 236 163 
3 242 181 168 
3 243 169 179 
3 168 244 242 
3 4 244 168 
3 245 182 236 
3 163 236 182 
3 169 243 242 
3 242 244 247 
3 244 246 247 
3 4 9 5 
3 4 10 9 
3 4 10 244 
3 246 244 10 
3 242 247 70 
3 71 169 242 
3 70 71 242 
3 247 246 70 
3 246 10 70 
3 72 166 68 
3 166 171 68 
3 9 17 19 
3 92 91 191 
3 178 190 83 
3 83 84 178 
3 176 92 191 
3 191 190 248 
3 202 191 248 
3 190 178 248 
3 178 201 248 
3 191 202 190 
3 202 248 190 
3 250 249 253 
3 253 249 252 
3 251 250 235 
3 235 250 253 
3 231 251 232 
3 232 251 235 
3 254 253 252 
3 253 254 255 
3 252 1 256 
3 252 249 1 
3 257 252 256 
3 253 255 235 
3 235 255 239 
3 254 252 257 
3 249 250 0 
3 1 249 0 
3 2 0 251 
3 251 0 250 
3 251 231 181 
3 2 251 181 
3 239 0 255 
3 3 254 256 
3 254 257 256 
3 3 258 254 
3 255 259 5 
3 255 5 0 
3 255 5 239 
3 239 5 2 
3 244 239 2 
3 259 254 258 
3 259 255 254 
3 181 168 2 
3 168 4 2 
3 1 3 256 
3 2 4 244 
3 258 3 6 
3 260 258 6 
3 258 260 262 
3 246 261 259 
3 246 259 244 
3 263 258 262 
3 260 263 262 
3 259 258 261 
3 261 258 262 
3 8 7 260 
3 8 260 6 
3 259 9 5 
3 259 261 9 
3 260 7 262 
3 261 246 9 
3 260 264 265 
3 267 260 265 
3 261 262 266 
3 262 268 266 
3 262 260 267 
3 268 262 267 
3 265 260 14 
3 14 260 15 
3 15 260 7 
3 9 261 266 
3 19 9 266 
3 270 268 267 
3 265 269 270 
3 267 265 270 
3 14 22 265 
3 85 19 266 
3 269 265 22 
3 268 272 266 
3 271 272 268 
3 272 85 266 
3 268 270 271 
3 272 24 85 
3 271 24 272 
3 22 31 269 
3 270 274 271 
3 273 274 270 
3 28 271 274 
3 28 24 271 
3 269 31 27 
3 270 269 27 
3 273 270 27 
3 274 273 27 
3 28 274 27 
3 22 23 27 
3 31 22 27 
3 94 36 28 
3 196 36 94 
3 248 201 275 
3 276 248 275 
3 36 37 49 
3 47 36 49 
3 201 196 207 
3 275 201 207 
3 248 276 201 
3 201 276 275 
3 201 275 196 
3 196 275 207 
3 196 47 36 
3 207 47 196 
3 208 248 276 
3 208 202 248 
3 47 278 49 
3 278 277 49 
3 47 49 277 
3 278 47 277 
3 281 279 257 
3 257 279 282 
3 235 253 239 
3 239 253 255 
3 280 279 284 
3 283 280 284 
3 285 280 283 
3 282 284 279 
3 279 285 280 
3 257 282 281 
3 281 282 279 
3 280 285 282 
3 279 280 282 
3 286 263 282 
3 282 263 257 
3 255 254 258 
3 255 258 259 
3 254 257 263 
3 254 263 258 
3 282 285 286 
3 286 285 287 
3 257 258 263 
3 254 258 257 
3 244 255 259 
3 244 239 255 
3 287 285 283 
3 286 284 282 
3 239 259 255 
3 239 244 259 
3 283 290 289 
3 284 290 283 
3 283 289 287 
3 290 284 286 
3 291 287 288 
3 287 291 292 
3 286 287 264 
3 287 292 264 
3 263 286 264 
3 260 263 264 
3 258 263 260 
3 293 288 289 
3 289 288 287 
3 291 288 293 
3 264 290 286 
3 244 259 261 
3 246 244 261 
3 289 294 293 
3 293 294 295 
3 293 295 291 
3 290 264 11 
3 292 291 296 
3 297 265 292 
3 265 264 292 
3 292 296 297 
3 289 11 294 
3 290 11 289 
3 264 294 11 
3 264 292 294 
3 291 296 298 
3 264 265 297 
3 297 292 264 
3 295 294 300 
3 300 294 299 
3 14 294 299 
3 14 11 294 
3 295 300 291 
3 299 292 297 
3 294 292 299 
3 291 300 296 
3 11 299 294 
3 11 14 299 
3 300 301 298 
3 300 298 296 
3 265 14 297 
3 298 302 303 
3 296 298 303 
3 265 297 269 
3 297 304 269 
3 297 296 304 
3 296 303 304 
3 300 305 306 
3 300 306 301 
3 301 306 298 
3 299 297 29 
3 29 297 14 
3 29 14 22 
3 306 302 298 
3 29 297 304 
3 299 22 29 
3 14 22 299 
3 300 299 305 
3 305 299 29 
3 303 302 306 
3 269 304 308 
3 304 307 308 
3 310 306 309 
3 306 310 303 
3 303 310 311 
3 311 30 307 
3 310 30 311 
3 269 308 31 
3 304 303 311 
3 307 304 311 
3 305 310 309 
3 305 309 306 
3 31 308 27 
3 308 307 31 
3 307 30 31 
3 29 30 305 
3 30 310 305 
3 313 310 309 
3 313 309 312 
3 313 41 310 
3 310 41 30 
3 30 313 310 
3 30 41 313 
3 310 312 309 
3 30 31 41 
3 31 35 41 
3 41 48 35 
3 41 45 48 
3 37 35 48 
3 49 37 48 
3 312 314 313 
3 313 314 315 
3 313 315 45 
3 41 313 45 
3 312 313 315 
3 314 312 315 
3 208 276 317 
3 317 276 318 
3 275 318 276 
3 207 316 319 
3 275 207 319 
3 275 319 318 
3 209 206 213 
3 214 211 206 
3 209 214 206 
3 275 215 316 
3 215 275 319 
3 317 208 216 
3 213 208 209 
3 216 208 213 
3 320 214 209 
3 316 207 275 
3 320 209 321 
3 276 208 318 
3 318 208 317 
3 276 319 275 
3 318 319 276 
3 321 209 208 
3 321 208 317 
3 212 215 318 
3 318 215 319 
3 322 317 318 
3 316 215 319 
3 216 212 317 
3 317 212 318 
3 320 321 214 
3 323 319 215 
3 214 321 324 
3 322 319 323 
3 322 318 319 
3 318 319 323 
3 322 318 323 
3 317 324 321 
3 317 325 324 
3 317 322 325 
3 212 216 220 
3 219 212 220 
3 323 215 98 
3 218 214 324 
3 218 324 217 
3 325 328 324 
3 328 327 324 
3 328 325 322 
3 322 323 326 
3 328 322 329 
3 322 326 329 
3 220 105 219 
3 103 105 220 
3 99 323 98 
3 217 324 104 
3 326 99 60 
3 330 326 60 
3 323 99 326 
3 324 327 104 
3 218 217 104 
3 60 61 330 
3 330 61 331 
3 333 327 328 
3 333 328 334 
3 328 329 334 
3 326 332 335 
3 334 329 335 
3 326 335 329 
3 61 64 331 
3 330 331 64 
3 109 330 64 
3 330 109 336 
3 110 332 109 
3 332 336 109 
3 104 327 132 
3 326 330 336 
3 332 326 336 
3 332 121 335 
3 110 121 332 
3 327 333 132 
3 99 105 121 
3 110 99 121 
3 132 118 104 
3 118 103 104 
3 106 107 119 
3 132 333 118 
3 118 334 121 
3 334 335 121 
3 333 334 118 
3 104 106 119 
3 104 119 132 
3 120 107 119 
3 286 263 257 
3 286 257 282 
3 288 285 337 
3 285 288 287 
3 285 289 288 
3 285 283 289 
3 287 337 288 
3 286 260 263 
3 264 260 286 
3 339 288 338 
3 288 338 291 
3 291 338 339 
3 288 291 339 
3 339 296 291 
3 339 298 296 
3 292 291 297 
3 291 296 297 
3 291 295 340 
3 291 340 339 
3 295 300 301 
3 295 301 340 
3 340 301 339 
3 301 298 339 
3 303 296 302 
3 296 298 302 
3 299 29 300 
3 300 29 305 
3 270 269 308 
3 273 270 308 
3 303 302 311 
3 302 341 311 
3 306 309 302 
3 302 309 341 
3 309 303 341 
3 309 306 303 
3 310 309 303 
3 310 341 309 
3 310 311 341 
3 269 270 273 
3 308 269 273 
3 271 270 273 
3 274 271 273 
3 273 27 308 
3 273 28 36 
3 273 36 27 
3 307 30 342 
3 342 30 41 
3 36 273 37 
3 307 343 308 
3 342 343 307 
3 273 308 344 
3 308 343 344 
3 344 37 273 
3 41 35 342 
3 35 48 343 
3 344 343 49 
3 343 48 49 
3 37 344 49 
3 342 35 343 
3 48 345 277 
3 48 277 49 
3 45 48 345 
3 347 45 345 
3 315 45 346 
3 45 347 346 
3 45 315 347 
3 315 346 347 
3 277 350 278 
3 348 350 277 
3 350 349 316 
3 350 316 278 
3 316 349 278 
3 349 350 278 
3 316 319 323 
3 316 323 349 
3 319 316 349 
3 319 349 323 
3 352 354 351 
3 354 353 351 
3 233 232 237 
3 233 237 240 
3 242 246 247 
3 242 244 246 
3 246 266 355 
3 266 246 261 
3 18 246 355 
3 18 75 247 
3 18 247 246 
3 355 75 18 
3 70 247 75 
3 18 355 84 
3 355 272 84 
3 266 272 355 
3 272 85 84 
3 85 272 94 
3 272 271 94 
3 271 28 94 
3 178 190 201 
3 178 201 94 
3 325 322 329 
3 328 325 329 
3 330 326 332 
3 336 330 332 
3 335 332 110 
3 121 335 110 
3 357 334 335 
3 357 335 356 
3 118 358 121 
3 358 135 121 
3 132 359 118 
3 359 358 118 
3 121 135 335 
3 118 334 358 
3 132 333 359 
3 135 356 335 
3 358 357 135 
3 357 356 135 
3 334 357 358 
3 333 357 359 
3 359 357 358 
3 333 334 357 

POINT_DATA 360
SCALARS Label float
LOOKUP_TABLE default
10 10 8 1 8 1 1 1 1 
8 8 11 4 1 11 8 4 3 
8 8 1 2 11 1 8 1 1 
1 8 11 11 11 1 2 1 11 
10 10 1 1 2 11 3 1 2 
11 3 10 13 11 1 1 1 1 
1 1 1 1 1 3 5 1 1 
5 1 2 2 3 6 4 8 8 
6 6 8 8 3 4 4 4 3 
6 4 9 9 9 4 4 3 6 
4 8 6 3 9 3 3 3 8 
5 4 8 6 8 12 8 8 8 
12 12 12 5 5 5 5 5 5 
5 12 12 5 12 12 5 5 5 
5 5 5 5 5 5 12 5 5 
5 5 5 5 5 5 5 5 5 
5 5 5 5 5 5 5 5 5 
5 5 5 5 5 5 5 5 5 
8 9 6 8 8 6 6 8 6 
8 8 6 6 6 9 6 9 8 
9 8 8 8 8 8 8 8 8 
8 9 9 8 8 8 8 10 8 
8 8 8 9 9 10 8 8 8 
10 10 12 8 8 8 8 12 8 
8 8 12 8 8 8 9 9 9 
9 9 9 9 9 9 9 9 9 
9 14 9 9 9 11 9 9 14 
9 11 9 11 14 9 10 10 10 
10 14 11 11 10 11 11 10 10 
10 10 11 11 10 14 10 10 11 
10 14 14 13 10 10 10 13 13 
11 11 11 11 11 11 11 11 11 
13 11 11 11 11 13 11 13 11 
11 13 11 11 13 13 13 11 11 
13 11 13 11 11 13 13 11 11 
13 13 12 12 12 12 12 12 12 
12 14 12 12 12 12 12 12 14 
14 14 12 14 13 13 13 13 13 
13 13 13 13 13 13 13 13 13 
13 13 13 13 14 14 14 14 14 

