# vtk DataFile Version 3.0
vtk output
ASCII
DATASET POLYDATA
POINTS 385 float
-25.9196 22.2706 -16.0579 -26.7232 21.1437 -15.6456 -28.5312 20.5802 -15.4394 
-22.3036 22.2706 -16.0579 -23.1071 21.6381 -16.0404 -28.1295 22.0056 -18.528 
-32.1473 20.0279 -16.9486 -28.7321 19.696 -9.12597 -30.942 20.2595 -9.33217 
-26.3214 20.0524 -9.89814 -22.9062 18.8564 -9.67441 -22.3036 17.4868 -15.163 
-25.5179 18.3955 -14.4259 -27.9286 16.7162 -15.5228 -32.1473 18.3264 -14.6146 
-23.1071 16.3153 -7.8888 -26.3214 17.0859 -7.52902 -28.3304 17.9366 -8.69604 
-30.7411 18.2128 -7.94141 -33.1518 16.8899 -9.81045 -33.9554 17.763 -14.4084 
-21.0982 16.7295 -6.75685 -19.8929 16.9924 -14.7682 -19.8929 14.1061 -13.9258 
-22.3036 13.7497 -13.1537 -31.3437 13.1284 -14.8516 -13.0625 16.7295 -6.75685 
-15.875 17.0057 -6.00222 -18.6875 16.4534 -7.51148 -16.2768 14.3376 -6.30938 
-21.5 14.3376 -6.30938 -23.7098 13.2219 -7.61245 -28.7321 13.7051 -6.29184 
-33.7545 14.2107 -8.40215 -25.9196 13.9234 -7.44133 -31.1429 14.2797 -8.21349 
-18.6875 14.832 -6.70424 -19.0893 14.1061 -13.9258 -24.9152 13.6807 -13.3423 
-28.7321 13.4736 -13.9083 -34.7589 12.7609 -12.364 -14.6696 15.3042 -3.66818 
-35.7634 13.9345 -9.15678 -17.8839 10.4046 -6.58147 -21.0982 10.5426 -6.20415 
-23.5089 9.71418 -8.46804 -33.3527 10.6919 -7.54229 -19.0893 11.7142 -13.4784 
-20.6964 12.2086 -13.8732 -22.3036 10.8055 -14.2155 -16.2768 11.2553 -7.74849 
-25.5179 9.99034 -7.71341 -27.5268 10.1284 -7.33609 -35.5625 11.968 -9.29282 
-32.3482 10.899 -6.97632 -33.5536 8.36901 -6.90616 -35.9643 8.94361 -8.82781 
-31.5446 7.51825 -5.73914 -22.1027 6.8969 -7.43706 -23.9107 7.32228 -8.02057 
-32.75 5.83902 -6.83601 -35.9643 3.5273 -7.91533 -31.9464 4.57403 -6.80093 
-28.3304 5.56287 -7.59064 -31.5446 1.19329 -5.56375 -36.3661 1.62981 -7.86272 
-27.9286 1.05521 -5.94107 -33.1518 2.3202 -5.97614 -28.7321 -2.32554 -4.70389 
-34.1562 -0.4169 -6.47196 -31.3437 -1.26766 -5.30494 -36.3661 -0.543832 -8.56473 
-28.933 -2.80881 -6.02449 -34.3571 -4.28092 -6.55539 -31.9464 -4.00476 -5.80076 
-29.1339 -7.93782 -6.07284 -31.1429 -7.79974 -5.69553 -33.1518 -8.35205 -7.20478 
-27.5268 -9.69723 -5.64291 -30.942 -8.18952 0.223005 -30.7411 -9.69723 -5.64291 
-27.125 -6.8109 -6.48523 -27.125 -9.91549 -4.49343 -28.3304 -7.84433 1.16629 
-27.9286 -10.0982 1.99108 -30.7411 -10.018 0.46428 -24.7143 -9.83531 -6.02022 
-25.5179 -12.2495 -2.14184 -29.1339 -12.5257 -2.89647 -29.9375 -11.8353 -1.0099 
-24.3125 -12.4678 -0.992362 -29.1339 -4.46358 -0.0708828 -30.3393 -4.60166 -0.448197 
-25.5179 -7.84433 1.16629 -25.9196 -10.4545 2.76325 -25.1161 11.438 -14.233 
-28.3304 9.95474 -13.0484 -18.8884 7.63187 -12.4123 -24.9152 8.64301 -16.6329 
-19.8929 8.82783 -12.636 -22.3036 9.40243 -14.5577 -17.8839 7.87459 -6.51131 
-27.5268 9.0015 -6.9237 -26.5223 8.16189 -7.47213 -19.4911 4.79229 -7.95041 
-21.5 4.79229 -7.95041 -26.5223 4.50499 -6.98959 -22.7054 4.93037 -7.5731 
-26.3214 3.44711 -6.38854 -27.125 -1.19862 -5.11628 -27.125 -4.00476 -5.80076 
-23.7098 -8.3276 -0.154309 -24.7143 -8.51242 -4.15119 -23.1071 -10.4545 2.76325 
-26.7232 -5.23416 -0.430659 -20.2946 -10.9489 3.1581 -15.875 -11.5814 3.17564 
-13.4643 -10.5926 2.38593 -19.0893 -10.8108 3.53541 -19.8929 -12.2941 4.71997 
-29.1339 -13.5368 1.32414 -30.1384 -13.1114 0.740631 -24.7143 -14.686 5.16744 
-11.0536 -11.5814 3.17564 -11.0536 -12.4322 4.34266 -12.2589 -13.2027 3.98288 
-17.4821 -12.156 5.09729 -27.125 -14.6058 3.64065 -15.0714 -12.0179 5.4746 
-7.83928 -13.421 5.13237 -17.4821 -17.0779 5.61491 -21.9018 -17.6302 4.10566 
-27.7277 -15.3652 1.56542 -24.7143 -16.9175 2.56132 -26.5223 -16.3541 2.35512 
-8.24107 -15.5368 6.33447 -10.6518 -15.8129 5.57984 -12.6607 -15.951 5.20252 
-15.6741 -16.3764 5.78603 -20.2946 21.2818 -15.2682 -18.2857 17.1305 -14.3908 
-17.0804 14.7964 -12.0393 -16.8795 11.8411 -11.3856 -17.0804 8.74764 -11.1092 
-16.2768 8.31111 -8.81028 -18.8884 5.37804 -11.5875 -16.6786 5.64305 -9.11743 
-17.2812 5.79228 -10.4556 -20.2946 22.6849 -14.926 -21.0982 19.8341 -8.74866 
-18.0848 19.1772 -15.7816 -17.4821 20.2484 -7.61671 -12.6607 19.9722 -8.37134 
-11.0536 20.3864 -7.2394 -15.875 20.2484 -7.61671 -11.4554 17.4422 -8.30119 
-13.8661 17.1082 -10.9599 -13.4643 19.7762 -10.6528 -16.0759 18.8787 -13.1053 
-16.4777 17.8899 -12.3156 -29.9375 9.70088 -17.234 -33.9554 9.75877 -15.3299 
-34.1562 8.0684 -14.7113 -29.9375 6.81455 -16.3916 -28.933 6.66533 -15.0535 
-19.8929 4.18209 -11.3638 -22.3036 6.45821 -15.6195 -26.3214 4.64091 -17.0937 
-28.3304 3.57189 -14.7772 -30.3393 4.6988 -15.1895 -18.6875 1.57192 -9.76683 
-20.2946 3.25115 -8.66996 -18.6875 1.29577 -10.5215 -20.6964 0.881533 -11.6534 
-22.3036 3.44711 -6.38854 -19.8929 0.00847744 -7.05547 -18.2857 -1.17633 -8.54719 
-23.1071 -1.3367 -5.4936 -17.4821 -3.37227 -5.8183 -19.8929 -3.09611 -5.06367 
-24.7143 -3.86668 -5.42344 -15.4732 -4.3611 -5.02859 -14.6696 -5.21186 -3.86157 
-13.4643 -7.46569 -3.03678 -15.4732 -5.98244 -4.22134 -17.4821 -5.98244 -4.22134 
-20.0937 -6.46571 -5.54195 -19.2902 -8.05144 0.600321 -15.2723 -8.18952 0.223005 
-20.4955 -8.05144 0.600321 -20.4955 -8.99569 -5.47179 -13.4643 -8.73069 -3.00171 
-17.8839 30.7825 -6.76539 -15.875 29.7937 -5.97568 -20.0937 29.3906 -8.82308 
-17.0804 28.1368 -10.5035 -17.8839 29.4018 -10.5385 -20.2946 28.7114 -12.4251 
-16.8795 26.6068 -12.9385 -20.6964 27.4687 -15.8209 -18.2857 27.4687 -15.8209 
-23.308 25.5244 -19.3879 -21.0982 25.6737 -20.726 -23.9107 25.1213 -22.2353 
-21.9018 23.5 -21.428 -23.9107 24.569 -23.7445 -26.7232 24.9833 -22.6126 
-26.1205 23.7294 -24.293 -14.2679 28.5287 -5.94061 -15.875 25.9987 -5.87045 
-18.2857 26.2972 -8.54673 -17.683 24.3752 -15.5446 -27.9286 23.304 -23.7095 
-13.6652 26.286 -6.83128 -16.6786 23.3752 -13.0394 -24.3125 19.1527 -22.8321 
-26.3214 21.6248 -24.8063 -28.5312 19.9344 -24.1877 -21.7009 20.0502 -20.3795 
-13.8661 23.0545 -6.93224 -16.6786 22.9164 -7.30955 -17.8839 23.6291 -8.85389 
-27.125 16.2085 -23.8939 -28.933 17.4045 -24.1176 -11.0536 22.7783 -7.68687 
-22.1027 18.6472 -20.7218 -24.3125 17.8877 -22.797 -31.3437 17.4045 -24.1176 
-24.7143 13.242 -21.5247 -31.5446 15.0816 -23.4815 -26.3214 14.7253 -22.7093 
-27.5268 15.576 -23.8763 -24.7143 11.7587 -20.3402 -30.5402 11.4937 -22.8103 
-26.3214 11.7008 -22.2443 -28.7321 11.5628 -22.6216 -26.9241 9.51606 -21.2309 
-28.5312 6.98607 -21.1607 -23.1071 1.31806 -13.9524 -25.9196 0.903827 -15.0843 
-27.5268 1.6744 -14.7245 -25.9196 27.1925 -16.5756 -28.7321 26.9164 -17.3302 
-31.7455 25.9387 -18.2559 -27.5268 25.3975 -21.4807 -30.7411 25.1213 -22.2353 
-31.7455 23.8675 -23.9157 -31.5446 22.431 -19.1115 -31.1429 20.4979 -24.3939 
-32.5491 19.3153 -15.4043 -35.3616 18.3264 -14.6146 -33.5536 17.5314 -22.0248 
-32.75 14.7253 -22.7093 -35.3616 14.6695 -14.132 -35.7634 11.0126 -13.6495 
-36.3661 7.06842 -12.2061 -32.5491 4.13535 -14.9833 -35.9643 4.04401 -11.7411 
-29.9375 2.93939 -14.7596 -32.75 0.961717 -13.1802 -35.9643 2.08863 -13.5926 
-23.1071 -2.33884 -13.4698 -25.5179 -1.84442 -13.8647 -19.0893 -1.3723 -10.8286 
-32.75 -2.33884 -13.4698 -20.6964 -1.78653 -11.9606 -29.9375 -2.47692 -13.8471 
-27.3259 -1.91346 -14.0533 -34.3571 27.6067 -15.4436 -34.9598 26.6291 -16.3694 
-33.5536 25.3975 -21.4807 -33.9554 23.7183 -22.5775 -34.3571 24.2839 -12.3023 
-35.1607 22.5468 -15.3033 -34.1562 20.4868 -22.6785 -35.5625 19.6604 -14.461 
-35.3616 21.0391 -21.1692 -34.558 19.9833 -10.0868 -35.5625 19.9143 -10.2755 
-37.9732 19.8564 -12.1796 -38.5759 17.4757 -13.4476 -35.5625 16.1283 -22.3671 
-37.3705 15.9791 -21.0289 -35.5625 14.311 -23.8412 -35.9643 17.028 -9.43313 
-37.5714 17.3843 -10.2053 -41.9911 16.5203 -17.8042 -38.5759 15.5203 -15.299 
-40.7857 15.7497 -18.164 -42.9955 13.1507 -18.2825 -42.7946 16.4624 -19.7083 
-37.5714 13.7587 -25.3505 -40.3839 13.3445 -26.4824 -43.5982 14.4491 -23.4639 
-35.1607 12.2755 -24.1659 -41.5893 11.7231 -25.6752 -37.5714 9.82566 -25.6226 
-44.8036 11.643 -24.1484 -32.75 10.8724 -24.5082 -38.9777 11.1507 -13.2722 
-40.7857 11.1841 -18.4185 -43.3973 10.8968 -17.4577 -46.2098 10.3668 -22.3979 
-38.375 14.9924 -9.75783 -32.75 6.99722 -22.8762 -43.5982 7.49164 -23.271 
-35.9643 6.72107 -23.6308 -37.5714 6.72107 -23.6308 -41.9911 7.98606 -23.6659 
-45.6071 10.6318 -19.9278 -30.7411 9.03279 -22.5515 -46.8125 7.1353 -22.4988 
-38.5759 11.4046 -9.08663 -38.1741 7.07956 -13.9216 -41.1875 7.60742 -19.4628 
-44 8.65415 -18.3484 -46.0089 8.10184 -19.8576 -31.3437 5.44493 -21.8802 
-45.2054 5.59415 -23.2184 -33.5536 6.36473 -22.8586 -40.7857 6.00838 -22.0864 
-44.4018 5.73223 -22.8411 -35.9643 6.22665 -23.2359 -39.5804 5.73223 -22.8411 
-37.3705 4.68766 -13.4741 -29.1339 5.9282 -20.5596 -38.9777 8.87457 -9.01647 
-39.9821 8.3913 -10.3371 -31.5446 2.13322 -20.4544 -38.7768 2.98398 -21.6214 
-33.1518 2.48956 -21.2266 -35.9643 2.70783 -22.3761 -38.9777 3.8146 -8.87616 
-40.7857 4.28457 -16.3215 -40.3839 2.38708 -16.2689 -37.9732 3.09976 -17.8132 
-33.7545 -1.86887 -20.9152 -36.7679 -0.810994 -21.5162 -37.9732 -1.30541 -21.1213 
-38.7768 0.721159 -8.59981 -42.9955 2.0196 -13.7813 -36.1652 -1.91346 -14.0533 
-38.7768 -1.76424 -15.3915 -32.1473 -0.4658 -20.5729 -43.1964 -1.21193 -13.8822 
-40.7857 -0.637319 -15.8039 -29.9375 -2.615 -14.2245 -32.75 -2.89115 -14.9791 
-39.1786 -4.13385 -18.3749 -34.1562 -2.99579 -20.5028 -38.1741 -4.39886 -20.845 
-36.3661 -4.32982 -20.6563 -38.375 -0.405755 -8.18742 -25.9196 -3.32768 -12.6801 
-27.5268 -2.83326 -13.075 -42.7946 -3.44346 -16.4883 -34.9598 -2.88 -16.6945 
-41.1875 -4.13385 -18.3749 -21.0982 -3.68402 -11.9079 -23.1071 -4.37441 -13.7945 
-36.7679 -4.83323 -8.06465 -19.4911 -3.40786 -11.1533 -37.3705 -3.4992 -7.91107 
-19.4911 -8.46783 -11.013 -25.317 -6.14496 -11.6491 -23.1071 -5.99574 -12.9873 
-20.6964 -6.214 -11.8378 -36.3661 -7.08706 -7.23986 -16.6786 -9.97338 -6.39754 
-17.4821 -10.3876 -7.52948 -19.4911 -10.2272 -10.5831 -23.308 -11.343 -11.8861 
-20.6964 -10.6415 -11.715 -33.9554 -10.1115 -6.77485 -35.5625 -9.97338 -6.39754 
[...]
POINT_DATA 385
SCALARS Label float
LOOKUP_TABLE default
8 1 1 8 8 10 11 1 1 
1 8 8 6 8 11 1 1 1 
1 1 10 1 8 8 3 10 8 
1 1 1 1 1 1 1 1 1 
1 6 6 8 10 1 11 3 1 
1 1 6 8 8 6 1 3 11 
1 1 11 2 3 4 1 11 1 
3 1 11 3 1 3 1 3 11 
1 12 1 12 12 12 12 2 12 
12 1 2 1 1 12 1 1 1 
5 4 2 4 4 8 8 6 9 
8 9 3 3 3 6 6 3 6 
3 3 8 8 8 5 4 5 5 
5 5 5 5 5 5 5 5 5 
5 5 5 5 5 5 5 5 5 
5 5 5 5 9 8 6 6 6 
6 9 6 6 9 8 9 8 8 
8 8 8 8 9 9 8 9 10 
11 9 9 8 9 9 9 10 8 
8 9 9 8 8 8 8 8 8 
8 8 8 8 8 12 12 8 8 
8 12 12 9 9 9 9 9 9 
9 9 9 9 9 9 9 9 10 
9 9 9 9 9 11 9 9 9 
9 9 9 9 9 9 9 9 9 
9 9 13 9 13 9 9 9 11 
14 9 14 14 9 9 9 10 10 
11 14 11 11 11 13 11 11 11 
11 10 11 11 11 11 11 11 11 
10 10 10 11 10 11 11 11 11 
11 13 11 11 11 13 13 11 11 
11 11 11 11 11 11 11 11 11 
11 11 13 11 11 13 11 11 11 
11 11 11 11 11 11 11 11 11 
11 11 11 13 11 13 11 11 11 
11 13 11 11 11 11 11 11 11 
11 11 11 11 11 11 11 11 11 
11 11 11 11 11 13 11 11 11 
11 11 11 11 11 11 11 11 11 
11 11 12 14 13 11 13 12 12 
12 12 12 12 14 12 12 12 12 
12 12 14 14 12 12 13 13 13 
13 13 13 13 14 14 14 
